<?xml version="1.0" encoding="UTF-8"?>
<configuration xmlns:xsi="http://www.w3.org/2001/XMLSchema-instance"
               xsi:noNamespaceSchemaLocation="http://sumo.dlr.de/xsd/sumoConfiguration.xsd">

  <input>
    <net-file    value="network.net.xml"/>
    <route-files value="routes.rou.xml"/>
    <gui-settings-file value="gui_settings.xml"/>
  </input>

  <time>
    <begin       value="0"/>
    <end         value="3600"/>
    <step-length value="1"/>
  </time>

  <processing>
    <time-to-teleport    value="300"/>
    <collision.action    value="warn"/>
    <ignore-route-errors value="true"/>
    <seed                value="42"/>
  </processing>

  <o>
    <tripinfo-output value="output/tripinfo.xml"/>
    <tripinfo-output.write-unfinished value="true"/>
    <summary-output  value="output/summary.xml"/>
  </o>

  <report>
    <verbose     value="false"/>
    <no-step-log value="true"/>
    <no-warnings value="false"/>
    <duration-log.statistics value="true"/>
  </report>

</configuration>
